
221 atoms
5 atom types
   0.0000000000   12.3302207000 xlo xhi
   0.0000000000   12.8139416200 ylo yhi
   0.0000000000   16.0000000000 zlo zhi
   0.0000000000    0.0000000000    0.0000000000 xy xz yz

Atoms # atomic

     1      1    6.2145200000    6.0879600000    7.3395900000
     2      1    5.9770700000    8.2190600000    8.4980400000
     3      1    4.2343000000    8.7735100000    7.4586900000
     4      1    2.8596400000    9.4331100000    6.9394300000
     5      1    3.9800600000    8.4821400000   11.8860000000
     6      1    3.0024400000    8.3171300000   10.6424000000
     7      1    3.6040500000    0.7012600000    7.7335000000
     8      1    3.2828900000    2.8462500000    7.3767900000
     9      1    5.8045400000   10.2707000000    3.6131600000
    10      1    7.2224600000   10.3345000000    4.2830000000
    11      1    5.8458700000    4.7065200000   12.5723000000
    12      1    4.5185300000    4.1134800000   12.5719000000
    13      1    3.2368700000   10.4102000000   10.9088000000
    14      1    3.3116100000   11.9863000000   10.9879000000
    15      1    0.0319757000    2.2843500000    8.2999800000
    16      1    0.7659680000    1.0416700000    8.8732000000
    17      1    1.7511100000    7.5681900000    6.7803200000
    18      1    0.6030450000    8.6223500000    6.8578400000
    19      1    9.3819500000   11.8223000000    9.6583600000
    20      1    9.1149100000   10.4064000000   10.3481000000
    21      1    0.5415880000    1.8505100000   12.4492000000
    22      1    0.5667140000    0.4660540000   13.1564000000
    23      1    0.5360250000   12.3667000000    3.7552900000
    24      1    0.3161760000    1.1886300000    3.7463200000
    25      1    4.9602000000    8.7912500000    9.5921900000
    26      1    5.8857400000   10.8620000000    8.7733300000
    27      1    4.6059200000    6.6646600000   13.4957000000
    28      1    4.9228700000    8.0581000000   14.0037000000
    29      1    4.4084200000    4.6035400000    6.2817700000
    30      1    3.0850200000    4.2519200000    8.1652400000
    31      1    1.9733200000    2.6055700000    4.4458100000
    32      1    0.8881290000    3.6689800000    4.2056400000
    33      1    7.4442500000   11.8801000000    5.9508900000
    34      1    8.9439000000   11.9817000000    5.4790300000
    35      1    9.1687600000    7.9825900000    6.5198300000
    36      1    8.7131700000    7.1134700000    5.2460400000
    37      1    9.2269400000    9.9564900000    8.0391400000
    38      1    8.6545000000   10.2371000000    6.6607200000
    39      1    7.6296900000    8.5012100000    3.6593300000
    40      1    8.7258000000    7.6045500000    3.0493100000
    41      1    7.4667200000    5.2345400000   10.7375000000
    42      1    7.7409100000    6.2153000000   11.9709000000
    43      1    8.6638400000    0.4201860000   12.9516000000
    44      1    7.5558400000    0.1238930000   14.0467000000
    45      1   12.1194000000   10.6524000000    6.2393700000
    46      1   11.0791000000   10.2778000000    7.2522300000
    47      1    1.9480500000   10.1977000000    4.4268400000
    48      1    0.3576470000    9.8640600000    4.0200300000
    49      1    9.8072800000    2.0645800000   12.3053000000
    50      1   10.7419000000    0.9380950000   12.7758000000
    51      1   10.9054000000    8.3728100000    4.2237600000
    52      1   12.3066000000    7.5571900000    4.0616700000
    53      1    4.6856400000    2.0249300000   11.7275000000
    54      1    3.7850100000    2.1985200000   13.0181000000
    55      1    7.3384800000    7.2015900000   13.7210000000
    56      1    8.0866500000    8.2520000000   12.9382000000
    57      1    8.8588000000   10.7324000000   12.7212000000
    58      1    9.8614400000    9.6300100000   12.2929000000
    59      1    9.0283300000    2.0500900000    2.7577300000
    60      1    9.3919200000    1.4052600000    4.0912200000
    61      1   11.7167000000    5.9347700000    6.9053900000
    62      1   10.1993000000    5.8815200000    6.4056800000
    63      1    6.2488600000    0.1499650000   11.7290000000
    64      1    5.5146800000    0.3212420000   10.3494000000
    65      1    2.2776000000    2.8448300000   11.4176000000
    66      1    1.0668400000    2.6694600000   10.3511000000
    67      1    4.2917200000    5.4531200000   10.9139000000
    68      1    3.3999500000    6.0839800000    9.7432100000
    69      1    5.5483900000    7.1499800000    4.5975600000
    70      1    5.8169400000    4.1382700000    5.6215700000
    71      1    0.8673590000    6.6996600000   12.5638000000
    72      1    2.1071100000    7.4505100000   13.2471000000
    73      1   11.0050000000    1.2694800000    9.5307900000
    74      1   10.1138000000    0.9293590000   10.7046000000
    75      1   11.0587000000    3.3478600000    6.6197300000
    76      1   12.2631000000    2.8009600000    6.0410600000
    77      1    6.8749100000    2.0823400000    4.2637900000
    78      1    6.2294400000    1.6113700000    5.6367300000
    79      1    0.6065370000    4.9821900000   11.3378000000
    80      1   11.4402000000    5.1527700000   11.8863000000
    81      1   11.1801000000    4.5602400000    3.6151500000
    82      1   11.6096000000    5.1928400000    4.9603100000
    83      1    3.7489600000   12.0000000000    3.6112900000
    84      1    4.7441700000   12.2537000000    4.6908200000
    85      1    5.0428600000    1.3363800000    7.9573300000
    86      1    7.1150900000   11.5138000000    9.4548400000
    87      1    1.5384400000    7.5272800000    8.8717900000
    88      1    1.1549500000    7.0385200000   10.2676000000
    89      1    5.7917700000    4.7362800000    9.7008000000
    90      1    6.8874100000    5.3956400000    8.7538700000
    91      1    3.6674900000    1.9991800000    2.9138400000
    92      1    4.4796700000    1.9064700000    4.1504500000
    93      1    1.6422800000   11.6008000000   12.2144000000
    94      1    1.9089100000   11.4736000000   13.8198000000
    95      1   10.5277000000    0.7256390000    6.1317700000
    96      1   11.1321000000    0.0867315000    4.7448800000
    97      1    0.8712050000   11.7608000000    7.7739100000
    98      1    1.8117400000   11.9652000000    9.0143800000
    99      1    8.7715800000    1.8717000000    8.8191600000
   100      1    7.6032600000    3.0601300000    8.9247500000
   101      1   10.0073000000    3.9969600000   13.4001000000
   102      1    9.2186500000    4.5078000000   12.0356000000
   103      1   12.1124000000   10.4554000000   12.6033000000
   104      1   12.1624000000    9.1281600000   11.8992000000
   105      1    6.6229000000   12.7291000000    7.7196400000
   106      1    7.2715100000    1.3891500000    7.4188100000
   107      1    7.5550900000    6.7977400000    7.1663700000
   108      2    6.8108100000    6.7276600000    7.8594100000
   109      2    3.5347100000    8.7315500000    6.6969300000
   110      2    3.7368300000    8.8614200000   11.0041000000
   111      2    4.1191900000    1.1870300000    8.4770500000
   112      2    6.6817200000    9.8385500000    3.6716200000
   113      2    4.9210300000    4.9460300000   12.7903000000
   114      2    2.6595300000   11.2613000000   10.9704000000
   115      2    0.1952910000    1.8460500000    9.1312600000
   116      2    0.8155900000    7.7027700000    7.1272500000
   117      2    8.8088400000   11.0153000000    9.6156700000
   118      2    0.0589844000    1.3254000000   13.1250000000
   119      2   12.2847000000    0.2903820000    3.7634200000
   120      2    5.3827400000    8.9649800000    8.7690700000
   121      2    4.1785600000    7.5545700000   13.6185000000
   122      2    3.1411000000    3.8505000000    7.2199800000
   123      2    0.9960500000    2.7034500000    4.4528000000
   124      2    8.1328300000   11.4191000000    5.4462400000
   125      2    8.9489700000    7.0099500000    6.2429600000
   126      2    9.2493500000    9.5771400000    7.1717500000
   127      2    8.3881500000    7.8990200000    3.8929500000
   128      2    7.7251800000    5.2643300000   11.6954000000
   129      2    7.8625300000   12.6618000000   13.1689000000
   130      2   12.0344000000   10.3886000000    7.2049800000
   131      2    1.0490500000   10.5023000000    4.4072700000
   132      2    9.8466500000    1.0872600000   12.3347000000
   133      2   11.8447000000    8.4820300000    4.0232400000
   134      2    3.9768500000    2.6285700000   12.1928000000
   135      2    7.3663300000    7.5738700000   12.8341000000
   136      2    8.9359600000    9.7911100000   12.4170000000
   137      2    8.8868700000    2.1667700000    3.7313100000
   138      2   11.0214000000    5.3539000000    6.5224600000
   139      2    5.5212900000    0.5995100000   11.2912000000
   140      2    1.3429500000    3.1320800000   11.1880000000
   141      2    4.1644200000    5.3947500000    9.9150200000
   142      2    5.2391900000    4.9198300000    5.8630800000
   143      2    1.2089400000    7.5917800000   12.8148000000
   144      2   10.0872000000    0.9048770000    9.7226000000
   145      2   11.4722000000    2.4778700000    6.4580500000
   146      2    6.0348800000    2.1073100000    4.7698800000
   147      2   12.2278000000    5.5958500000   11.4601000000
   148      2   11.9435000000    5.1124100000    4.0248800000
   149      2    4.4406100000   11.5321000000    4.0921200000
   150      2    6.1846800000   11.6893000000    9.1508100000
   151      2    1.9473400000    7.3482600000    9.7306700000
   152      2    6.7663100000    4.6335600000    9.4059900000
   153      2    3.5552300000    1.7149600000    3.8244500000
   154      2    1.2582100000   11.7146000000   13.1509000000
   155      2   10.2804000000    0.0955604000    5.4527600000
   156      2    1.6410000000   12.2820000000    8.1024100000
   157      2    8.0549000000    2.3687100000    8.3372800000
   158      2    9.9252100000    3.9244200000   12.4413000000
   159      2   11.5218000000    9.7965200000   12.1888000000
   160      2    6.6713400000    0.5688580000    6.9629200000
   161      3    2.8972500000    9.0927900000    0.7567310000
   162      3    5.5804800000    9.1641000000    0.5752770000
   163      3    2.9497600000    6.3430100000    0.5665040000
   164      3    5.5754200000    6.3300700000    0.4321100000
   165      3    4.7385300000    7.2754700000    2.8419600000
   166      3    4.8516500000    6.7373500000    3.8936600000
   167      4   10.4607000000    0.6354110000    0.0937927000
   168      4   10.4511000000    2.0821400000    0.0563696000
   169      4   11.6774000000    2.7810600000    0.1996290000
   170      4   11.6434000000    4.2148200000    0.2448130000
   171      4   10.4387000000    4.8902300000    0.2630560000
   172      4   10.4127000000    6.3335800000    0.3155030000
   173      4   11.6119000000    7.0166900000    0.3947020000
   174      4   11.5618000000    8.4678100000    0.4023160000
   175      4   10.3672000000    9.2010800000    0.2977440000
   176      4   10.3635000000   10.6224000000    0.2705460000
   177      4   11.6209000000   11.2964000000    0.3999820000
   178      4   11.6879000000   12.7384000000    0.2484020000
   179      4    0.5740070000    0.5878470000    0.3232690000
   180      4    0.5895940000    2.0292300000    0.3018580000
   181      4    1.7956400000    2.7498100000    0.2851630000
   182      4    1.7607600000    4.1816700000    0.3244340000
   183      4    0.5492560000    4.8767800000    0.2628380000
   184      4    0.5584060000    6.3257400000    0.3351210000
   185      4    1.7277000000    6.9997900000    0.5445810000
   186      4    1.7099700000    8.4657800000    0.6138740000
   187      4    0.4432240000    9.1548900000    0.5384290000
   188      4    0.4847020000   10.5963000000    0.4532000000
   189      4    1.7387300000   11.2697000000    0.5136710000
   190      4    1.7917100000   12.6745000000    0.4082190000
   191      4    2.9900100000    0.6028130000    0.4540220000
   192      4    3.0019000000    2.0337800000    0.4091860000
   193      4    4.2550500000    2.7857400000    0.3417460000
   194      4    4.2705000000    4.2853900000    0.3886180000
   195      4    3.0053100000    4.9586400000    0.4780760000
   196      4    2.9364900000   10.4846000000    0.6670720000
   197      4    4.2158500000   11.2698000000    0.7273410000
   198      4    4.2342900000   12.6885000000    0.5312390000
   199      4    5.4661900000    0.6340420000    0.4084600000
   200      4    5.4937300000    2.0666100000    0.3446440000
   201      4    6.7529400000    2.7891200000    0.2736840000
   202      4    6.7453800000    4.2262700000    0.3578960000
   203      4    5.5589600000    4.9732000000    0.4055320000
   204      4    6.7685000000    6.9461600000    0.3980130000
   205      4    6.7602500000    8.4561200000    0.4025640000
   206      4    5.4849500000   10.5440000000    0.5989980000
   207      4    6.6765700000   11.2839000000    0.3952330000
   208      4    6.6457300000   12.7203000000    0.3905960000
   209      4    7.8989200000    0.6277490000    0.2634110000
   210      4    7.9191600000    2.0519300000    0.1886550000
   211      4    9.1820200000    2.7414200000    0.1910970000
   212      4    9.2035200000    4.2018500000    0.0694260000
   213      4    8.0312400000    4.8844900000    0.2050790000
   214      4    7.9846400000    6.3377600000    0.2838580000
   215      4    9.1903500000    7.0837800000    0.3119410000
   216      4    9.1692900000    8.4865100000    0.2339840000
   217      4    7.9309000000    9.1689800000    0.2800200000
   218      4    7.9266600000   10.6172000000    0.3056130000
   219      4    9.1554300000   11.3336000000    0.1934900000
   220      4    9.1592100000   12.7522000000    0.1895770000
   221      5    4.3192200000    7.6902400000    1.1794100000
